LAMMPS data file via write_data, version 2 Aug 2023, timestep = 4000000, units = real

754 atoms
4 atom types

0 44.46 xlo xhi
0 47.058 ylo yhi
-5 20 zlo zhi

Masses

1 15.9994
2 1.008
3 22.9897
4 35.453

Atoms # full

118 40 1 -0.8476 1.3614326712693343 3.457009775858419 3.5145639505544963 1 0 0
119 40 2 0.4238 1.4166648232418906 2.6595077086582237 4.115346876107323 1 0 0
120 40 2 0.4238 2.2842364501465 3.753825829686572 3.268934554131762 1 0 0
178 60 1 -0.8476 3.9689658731689343 5.043945123861956 3.647073761188055 0 0 0
74 25 2 0.4238 4.870154487350466 3.5403856200106363 3.192406356152328 0 1 0
187 63 1 -0.8476 2.8026171956600248 0.8276022103042538 2.9172637984777086 1 0 0
73 25 1 -0.8476 5.061016254770158 2.60154780753301 2.905778831393997 0 1 0
75 25 2 0.4238 4.206935053038734 2.153598936431702 2.6414172311000956 0 1 0
179 60 2 0.4238 3.3569224491700367 5.720198739988847 3.2370925294713957 0 -1 0
180 60 2 0.4238 4.7269352353396785 5.512306127344889 4.10107876246933 0 0 0
228 76 2 0.4238 0.4328286892235044 5.383960228738227 3.9480272017416143 1 0 0
189 63 2 0.4238 1.807949003215348 0.8120291379998775 3.019209572241508 1 1 0
226 76 1 -0.8476 0.038150252707379546 6.1443824189698875 3.432287554471001 0 0 0
360 120 2 0.4238 7.331613569432363 4.587072813728959 3.341055249516418 0 0 0
359 120 2 0.4238 6.898343738703826 3.0282525578795187 3.1197353073490275 0 0 0
358 120 1 -0.8476 7.662044388435758 3.643604161617918 3.3149367026197445 0 0 0
747 251 3 1 9.92326664488526 2.9261816467507273 3.3707807009461543 0 0 0
445 149 1 -0.8476 9.00315298285675 0.7877575096480738 3.424604562393225 0 0 0
442 148 1 -0.8476 10.89621414997419 5.05655358523833 3.038637450211649 0 -1 0
443 148 2 0.4238 10.278513678562918 5.82866477652747 2.889337840514616 0 -1 0
50 17 2 0.4238 5.997546692639913 1.0793238593471992 3.044139894806363 -1 0 0
446 149 2 0.4238 8.030892750814859 0.5976907265188923 3.288276547989647 0 0 0
661 221 1 -0.8476 6.826232515462193 6.349617868573061 3.5844652115724216 0 1 0
49 17 1 -0.8476 6.185316673225777 0.11544880335996878 3.2330505319636242 0 1 0
444 148 2 0.4238 11.837471727797721 5.3891646386558945 3.0969809191531854 0 -1 0
517 173 1 -0.8476 13.105739836798545 6.343062239527721 3.8294768589398878 0 0 0
725 242 2 0.4238 12.63345849118312 2.5415299731258068 3.5001292989263093 0 0 0
142 48 1 -0.8476 15.457934675476627 0.8083587544324735 3.4435078446280274 -1 0 0
40 14 1 -0.8476 13.903563988391957 3.664868160715023 3.432113103047117 -1 0 0
726 242 2 0.4238 12.187846121948443 0.9923492252359066 3.7610793759502226 0 0 0
724 242 1 -0.8476 11.862141152929265 1.9354700751680425 3.6944508790079515 0 0 0
41 14 2 0.4238 14.806614749634722 3.934120511408405 3.0974435480452747 -1 0 0
42 14 2 0.4238 13.536310352566838 4.3871315469132925 4.018168488529771 -1 0 0
144 48 2 0.4238 16.368211888310476 1.1107158497610163 3.7263080665548203 0 0 0
143 48 2 0.4238 15.036391214038229 1.5111087167311874 2.8704075360181807 -1 0 0
631 211 1 -0.8476 16.594357058752337 3.976203677600844 3.0344360117129283 0 0 0
518 173 2 0.4238 13.900783967756716 6.6970870017601705 4.3219917416949 0 0 0
633 211 2 0.4238 16.952712598523874 4.894032593098435 3.2052342233387217 0 0 0
172 58 1 -0.8476 17.307362923370487 6.576545340865261 2.8254120547964536 0 -1 0
404 135 2 0.4238 21.804044982639553 2.1757026773170565 3.506997270218018 0 0 0
632 211 2 0.4238 17.30762181395906 3.3001485074928665 3.219377066597907 0 0 0
357 119 2 0.4238 18.825571686632774 1.0051748322249916 3.1060184311922425 0 0 0
356 119 2 0.4238 19.428972442284525 2.4818790660804 3.4551293595790042 0 0 0
355 119 1 -0.8476 18.602678555572776 1.9187090446233344 3.446275076866394 0 0 0
640 214 1 -0.8476 21.00565754578918 3.8709529074815614 3.3573415241997626 0 0 0
403 135 1 -0.8476 22.070619250684647 1.2422701496140696 3.7470866906246094 0 0 0
641 214 2 0.4238 20.54513918533606 4.563791070234398 2.802455796179924 0 -1 0
642 214 2 0.4238 21.857606034970928 4.247532921043035 3.7211712838457376 0 0 0
405 135 2 0.4238 21.273621249518065 0.6415218242031394 3.6846666344937877 0 0 0
173 58 2 0.4238 16.847540342222814 6.431783024667469 1.949280413793867 0 -1 0
255 85 2 0.4238 23.21000462222776 6.371506662786333 2.911141411495099 0 0 0
502 168 1 -0.8476 25.821248921082727 6.350413417651313 3.2545430541189875 0 0 0
146 49 2 0.4238 24.37938392939114 5.253714592652438 3.685379849697662 0 1 0
147 49 2 0.4238 24.206229905532794 3.630473815070828 3.643755576330076 0 1 0
145 49 1 -0.8476 23.718836912592703 4.502960516344774 3.678605696895672 0 1 0
623 208 2 0.4238 23.932441357652603 1.6589389511516428 3.5394983053759677 0 0 0
624 208 2 0.4238 25.461768473773702 1.2130335914271113 3.180398384066372 0 0 0
622 208 1 -0.8476 24.85560248416242 1.990983223182937 3.345797268208037 0 0 0
44 15 2 0.4238 26.451651398168362 3.062747081882327 3.258466498681621 -1 -1 0
45 15 2 0.4238 26.706386802776144 4.67562349148186 3.2393663450269274 -1 0 0
43 15 1 -0.8476 27.138913349555857 3.782068025727853 3.3596960309231836 -1 0 0
422 141 2 0.4238 27.061691949616193 0.27372195431185153 3.269954373656819 0 0 0
155 52 2 0.4238 28.736966529725912 6.650782038846342 3.278391771329401 -1 -1 0
534 178 2 0.4238 28.088871313975627 2.1215311749656447 3.298634814371132 0 1 0
239 80 2 0.4238 30.72921699261978 6.35219612005565 3.180470343522762 0 0 0
533 178 2 0.4238 29.54774658329594 1.409569104367418 3.1213798704755105 0 1 0
532 178 1 -0.8476 28.561349675091478 1.2506349561434988 3.163344205366827 0 1 0
573 191 2 0.4238 28.6110664179084 4.452229941492006 3.434290057553271 0 0 0
572 191 2 0.4238 30.188038416594836 4.396712789211313 3.0139295503069357 0 0 0
571 191 1 -0.8476 29.463504003894677 4.973307906585239 3.3915376037373024 0 0 0
79 27 1 -0.8476 31.250467705732518 2.985084577275264 2.8293248699741356 0 0 0
80 27 2 0.4238 31.727873910910784 2.2680685533870295 2.3214160826410932 0 0 0
81 27 2 0.4238 31.910952139853872 3.6667941306379137 3.144019024632229 0 0 0
432 144 2 0.4238 32.69794522593781 5.595594129625241 3.6700183635477694 0 0 0
318 106 2 0.4238 33.26673593820207 0.265825739993756 3.6608611075344832 0 0 0
430 144 1 -0.8476 33.14536424663362 4.702064125699486 3.6323243598044446 0 0 0
431 144 2 0.4238 34.13275440966605 4.818948590830789 3.739091978740921 0 0 0
317 106 2 0.4238 33.86477307737542 1.7685416884719842 3.886300375045882 0 0 0
316 106 1 -0.8476 34.09650976139693 0.823884481002367 3.6540918619698295 0 0 0
65 22 2 0.4238 36.3567942981635 2.350604288048667 4.022432408887405 -1 0 0
668 223 2 0.4238 36.061486907522756 4.2908872971046526 2.6015109029207806 0 0 0
669 223 2 0.4238 36.66265456752913 5.160713972965612 3.8459487013348057 0 0 0
66 22 2 0.4238 36.68174145100831 1.2095600881150321 2.90035673068795 -1 0 0
667 223 1 -0.8476 35.88536775238828 5.051516982795854 3.2263507403253247 0 0 0
64 22 1 -0.8476 36.86660567775126 2.1499340486938037 3.185877618227258 -1 0 0
579 193 2 0.4238 38.683714608374416 2.923159613196026 2.9872192426593167 0 0 0
439 147 1 -0.8476 38.71493306712394 5.899568018212357 3.645880590435173 0 0 0
249 83 2 0.4238 38.8444143155645 0.15471612876105212 3.2116595804230297 0 0 0
31 11 1 -0.8476 44.32672546209473 0.3653890340902906 3.0002589468066923 -1 -1 0
593 198 2 0.4238 44.17444928495554 3.1904894729856226 3.1490844707082792 0 -1 0
36 12 2 0.4238 41.39481273376484 0.014843182542221608 3.248149725689893 -1 0 0
592 198 1 -0.8476 43.2711184429396 2.821515959990972 2.9303341620660244 0 0 0
441 147 2 0.4238 39.07999365363369 5.028872248231027 3.316305187067169 0 0 0
594 198 2 0.4238 42.580004136613745 3.5321938017801715 3.0618557100123276 0 0 0
32 11 2 0.4238 43.90614461010451 1.2586825774162107 2.8417085574667076 -1 -1 0
35 12 2 0.4238 41.97895785802308 1.510175714055871 2.9491820472202166 0 -1 0
227 76 2 0.4238 43.62531579624986 5.860473292093946 3.0353539257860556 0 0 0
269 90 2 0.4238 41.395805289478226 6.056768381379423 3.260973857660734 0 0 0
577 193 1 -0.8476 39.630566959094764 3.2398567473745845 3.043551128453526 0 0 0
270 90 2 0.4238 40.885854533952866 4.705237282968499 2.499435441957658 0 0 0
268 90 1 -0.8476 41.65633992737812 5.136575535731764 2.9687967154024806 0 0 0
578 193 2 0.4238 40.2154428666441 2.489072675393792 3.3505417375830278 0 0 0
34 12 1 -0.8476 41.15432552680501 0.9802068963689349 3.146958207609323 0 0 0
440 147 2 0.4238 39.470628398728564 6.521261351395885 3.8518477060271965 0 0 0
367 123 1 -0.8476 1.9480723824413413 10.147510533567637 3.1276819080909655 0 0 0
369 123 2 0.4238 2.922696358321478 10.370844314797552 3.112478423044179 0 0 0
368 123 2 0.4238 1.4136931200240372 10.975534712724023 2.9579299204982727 0 0 0
220 74 1 -0.8476 4.543759607449421 11.62391034782597 3.5095521170802093 0 0 0
84 28 2 0.4238 4.5944988161642 8.069517937639025 3.1155536448936556 0 0 0
83 28 2 0.4238 5.016642589988581 9.646170095007655 3.166433513530322 0 0 0
344 115 2 0.4238 2.2808007440299995 8.465989688500638 3.1148412028457444 0 0 0
222 74 2 0.4238 3.9052381030980223 12.363880942611964 3.721056864549766 1 0 0
82 28 1 -0.8476 5.362013405794717 8.710279361498033 3.096949181886581 0 0 0
343 115 1 -0.8476 2.3381342241117693 7.467662657005932 3.122316038951343 0 0 0
221 74 2 0.4238 5.4416428703898605 11.838361572430037 3.894021279612335 0 0 0
345 115 2 0.4238 1.416075035237001 7.080758501935377 3.1117464858313535 0 0 0
513 171 2 0.4238 1.6681822001221103 13.392353229808917 3.295265331392449 0 0 0
397 133 1 -0.8476 0.2546543314114958 12.703083284502995 3.1897340809419834 0 0 0
9 3 2 0.4238 0.1940822531890564 9.387050555538236 3.813571311682731 0 -1 0
366 122 2 0.4238 6.563112034564077 12.86495697302322 2.9542395642505355 0 0 0
563 188 2 0.4238 7.990888440364545 10.376196246117766 3.8925621297720663 0 0 0
562 188 1 -0.8476 8.086857298092507 9.448404525516679 3.5320178560772333 0 0 0
564 188 2 0.4238 7.18597194041567 9.092548029780184 3.2834786682800687 0 0 0
742 248 1 -0.8476 10.656425840543633 10.982461685404326 3.076979673118322 0 -1 0
744 248 2 0.4238 9.833325782378347 10.476868188960479 2.8183638701415776 0 -1 0
338 113 2 0.4238 10.827283032023457 7.951172696767029 2.791700094881428 0 0 0
339 113 2 0.4238 9.242183032342181 8.207894124038994 3.088648885531948 0 0 0
337 113 1 -0.8476 9.918916151511008 7.533007496664341 2.7944375089512583 0 0 0
743 248 2 0.4238 10.40128017260469 11.897938019231088 3.3881134550760756 0 -1 0
364 122 1 -0.8476 7.290338272729183 12.287258024290319 3.3249226107768215 0 0 0
365 122 2 0.4238 8.168578642862547 12.756424222058238 3.232311317830933 0 0 0
662 221 2 0.4238 6.262285481905649 7.029152522259876 3.1152137562385738 0 1 0
663 221 2 0.4238 7.620403051670055 6.799960923035141 3.9924904124417235 0 1 0
117 39 2 0.4238 11.794353305534878 9.589329498804089 3.150997859627174 0 0 0
115 39 1 -0.8476 12.278256433552542 8.765501722730871 2.85579238464314 0 0 0
116 39 2 0.4238 13.23163065654536 8.992265991705933 2.656654270629249 0 0 0
606 202 2 0.4238 13.985725668676205 10.900523048697456 3.3554325927443864 0 0 0
751 255 4 -1 15.620216421014085 9.354452293722385 3.3546918475049794 0 0 0
605 202 2 0.4238 12.502406536236121 11.30453126738213 2.804825043369091 0 0 0
604 202 1 -0.8476 13.359836520483501 11.659780769049192 3.1771311187492204 0 0 0
654 218 2 0.4238 14.985965208733818 12.754965889181562 3.4325397364803627 0 0 0
652 218 1 -0.8476 15.769175402687566 13.28433099920306 3.7586598074711124 0 0 0
519 173 2 0.4238 12.6827173145875 7.08170747537771 3.3046387820240377 0 0 0
549 183 2 0.4238 20.300447554139094 6.881816681029996 4.059795547624242 0 0 0
174 58 2 0.4238 17.020383808339027 7.453178409970136 3.211620449176392 0 0 0
748 252 3 1 17.383806151836733 11.426381137781926 3.6737306007877195 0 0 0
510 170 2 0.4238 19.95501764930564 12.755459017046116 3.372637362697476 0 0 0
333 111 2 0.4238 20.267538275854587 10.284516416174183 3.400565479609517 0 0 0
332 111 2 0.4238 19.434750179076268 8.909486167806387 3.113543469721787 0 -1 0
331 111 1 -0.8476 19.388186467410556 9.822980677114773 3.5177209701160934 0 -1 0
394 132 1 -0.8476 21.55151946378113 11.664359966636743 3.302925650648112 0 0 0
508 170 1 -0.8476 19.034027253194026 13.132343682187425 3.2739729392576447 0 0 0
254 85 2 0.4238 21.98030666842679 7.429788026787228 3.0969100927728186 0 0 0
396 132 2 0.4238 21.842808274980946 12.613828753461206 3.4198006773834133 0 0 0
547 183 1 -0.8476 20.011281207312408 7.073674724503015 3.1219399270810912 0 0 0
548 183 2 0.4238 19.01584104715114 7.002149869185356 3.058830139331775 0 0 0
503 168 2 0.4238 26.686261030078345 6.845254101222432 3.3375296218623194 0 0 0
395 132 2 0.4238 22.352369217951235 11.08734493811684 3.142634883405201 0 0 0
253 85 1 -0.8476 22.975044409264143 7.328853935026807 3.0793091933461634 0 0 0
527 176 2 0.4238 25.853721741837173 12.739911724605982 2.9975077854852845 0 0 0
696 232 2 0.4238 23.704631769088355 10.276620778358865 4.427639155079548 0 0 0
694 232 1 -0.8476 23.838454278893895 10.02460227698293 3.469214374736017 0 0 0
695 232 2 0.4238 23.601723927778632 9.061436727187335 3.341653763979385 0 0 0
283 95 1 -0.8476 26.6150596019388 10.531275707442443 3.5449870894203506 -1 0 0
285 95 2 0.4238 25.713544489791104 10.100164415697966 3.582587810753226 0 0 0
284 95 2 0.4238 27.22709715356815 10.081286638533271 4.195309891417887 -1 0 0
504 168 2 0.4238 25.12148165583294 6.961987745330773 2.8853512727018376 0 0 0
238 80 1 -0.8476 31.432010766118843 7.05451822272401 3.2937147516742535 0 0 0
240 80 2 0.4238 30.995605206774606 7.940756075297798 3.449060025023206 0 0 0
154 52 1 -0.8476 28.249678612559 7.512955187881543 3.1397963654286225 -1 0 0
424 142 1 -0.8476 31.88224769554069 12.570566043443613 3.558330166621227 0 0 0
671 224 2 0.4238 27.968022986335537 11.67074061440004 3.001225782323897 0 0 0
670 224 1 -0.8476 28.91873951296202 11.977548661445455 3.04603264186887 0 0 0
411 137 2 0.4238 29.83887644615663 10.33568724127355 3.322787251272657 0 0 0
409 137 1 -0.8476 30.463716456556654 9.555827154751247 3.360124417255924 0 0 0
410 137 2 0.4238 31.408065194987298 9.883933032297758 3.3366204166073223 0 0 0
672 224 2 0.4238 28.958146182366615 12.96456622929034 2.890328203729529 0 0 0
425 142 2 0.4238 32.35047455187464 11.701256522689846 3.4000100149748484 0 0 0
426 142 2 0.4238 30.897213813542137 12.411389225368493 3.624446010284374 0 0 0
156 52 2 0.4238 28.842538380223235 8.276008465025788 3.3972203096189637 0 0 0
319 107 1 -0.8476 33.333208549488404 10.167493160815143 3.394431149083437 0 -1 0
153 51 2 0.4238 38.51142541364695 9.596305934258986 3.460197925150336 0 -1 0
191 64 2 0.4238 33.52059055899443 7.517176848852439 3.3657058319306405 0 0 0
190 64 1 -0.8476 34.4985098858716 7.573931856093136 3.5668348325862054 0 0 0
698 233 2 0.4238 35.2090114027501 13.076104132216901 3.302652520569363 0 0 0
321 107 2 0.4238 33.65814380810594 9.42554001120076 3.980880847554097 0 0 0
149 50 2 0.4238 36.263268982735184 8.310574739185212 3.401571879914251 0 -1 0
320 107 2 0.4238 34.11554827310044 10.627026471717725 2.973985658413681 0 -1 0
150 50 2 0.4238 37.565647667572655 7.329958111745291 3.307616755927336 0 -1 0
691 231 1 -0.8476 36.105401985729564 11.503657809432633 3.157482289334011 0 0 0
693 231 2 0.4238 36.347889175327616 10.998263871766305 3.985598852492385 0 0 0
148 50 1 -0.8476 37.259747137810564 8.281901305067086 3.3227713567953105 0 -1 0
692 231 2 0.4238 36.93187889963454 11.688247591258582 2.6256339450867148 0 0 0
139 47 1 -0.8476 38.833793466007585 12.845933897115714 3.131470499040585 -1 0 0
192 64 2 0.4238 34.97735415315507 6.826200906054497 3.1068271377778562 0 0 0
257 86 2 0.4238 42.64426255255748 10.197772963629754 3.1260467663126996 0 0 0
602 201 2 0.4238 40.364580223165824 8.630984213957612 3.489908554658195 0 0 0
140 47 2 0.4238 39.797627331708554 13.078705868077392 3.2612472734310756 -1 0 0
603 201 2 0.4238 41.83815920255297 8.033707669536948 3.8619981792835163 0 -1 0
278 93 2 0.4238 41.71269205842193 12.847876007505672 2.9885388014985064 0 0 0
151 51 1 -0.8476 39.314393886084986 10.12761490479095 3.730297286582679 0 -1 0
399 133 2 0.4238 43.99425607788274 12.035394195347964 3.377398071161121 -1 0 0
601 201 1 -0.8476 40.911813718719095 7.79769599281908 3.568430367624301 0 -1 0
256 86 1 -0.8476 41.989731266160355 10.950870502243555 3.192631372176504 0 0 0
152 51 2 0.4238 39.10736068091394 11.103440579371334 3.660282760427934 0 -1 0
7 3 1 -0.8476 43.81030546128635 8.851668150831946 3.851082413288651 -1 -1 0
258 86 2 0.4238 41.26008578858743 10.702963761233198 3.8299384058916512 0 0 0
8 3 2 0.4238 44.01897125708264 7.888395020222244 3.6820724839038146 -1 0 0
352 118 1 -0.8476 1.673325933210109 16.682492330545166 3.2160014699880186 1 0 0
354 118 2 0.4238 1.1794276297939867 17.47784055567449 3.5674073967464563 1 0 0
353 118 2 0.4238 2.644893271321583 16.9038553328877 3.132001661027434 0 0 0
175 59 1 -0.8476 4.399285030248121 17.66636639438254 3.5905528613319766 0 0 0
161 54 2 0.4238 4.570222794330039 14.749295285786301 4.199476103765169 0 -1 0
162 54 2 0.4238 4.660231144371006 14.740080212479862 2.5690037690489853 0 -1 0
176 59 2 0.4238 3.8150135733577497 18.476391466218903 3.540682752682242 0 0 0
512 171 2 0.4238 2.4041640660183807 14.767776232405913 3.7781403117005836 0 0 0
160 54 1 -0.8476 5.187967201106329 14.810535337966353 3.4154852583377338 0 -1 0
645 215 2 0.4238 0.34818267146731713 15.809635134126161 2.746851703110276 1 0 0
232 78 1 -0.8476 0.0737546932201894 19.01767672964299 3.400786534178471 -1 0 0
177 59 2 0.4238 5.351449467364029 17.948854111141333 3.7071023571549704 0 0 0
87 29 2 0.4238 1.998664637526805 19.514351260502576 3.596903051601828 0 0 0
85 29 1 -0.8476 2.86366150366338 19.986735133353164 3.427687520412987 0 0 0
511 171 1 -0.8476 2.5515144279764588 13.83731867690702 3.4426761681041134 0 0 0
489 163 2 0.4238 10.439582869364822 13.783860405443992 3.4756714385493366 0 0 0
610 204 1 -0.8476 7.30682706988964 18.837433494701248 3.347904571915631 0 0 0
206 69 2 0.4238 6.920719846562072 15.668119370054066 3.5633288777200876 1 0 0
205 69 1 -0.8476 7.7097733782657505 16.175883638623787 3.2175405367461902 1 0 0
207 69 2 0.4238 7.416511134974707 17.08351967346773 2.9172178375048547 1 0 0
488 163 2 0.4238 8.997623487358933 14.402777787694175 3.023652575138865 0 -1 0
611 204 2 0.4238 8.277784831856449 19.076537312908954 3.3395277473580522 0 0 0
481 161 1 -0.8476 10.568924278973514 16.560909101430664 3.334777372602221 0 0 0
483 161 2 0.4238 9.61834030241688 16.306233672918463 3.1572073967820677 0 0 0
467 156 2 0.4238 10.328023705670116 18.557959064550047 3.3597342982918854 0 -1 0
482 161 2 0.4238 11.086618670634284 15.749081852042714 3.6048317684317106 0 0 0
487 163 1 -0.8476 9.485740575742815 13.565379592960207 3.269633243866902 0 0 0
466 156 1 -0.8476 9.914992428228446 19.462698257837296 3.255555973985803 0 -1 0
468 156 2 0.4238 10.635236817030352 20.155223875903168 3.214848757809622 0 0 0
612 204 2 0.4238 6.7576409085770734 19.67293974154682 3.3299109068096393 0 0 0
362 121 2 0.4238 15.12523880177886 19.62587774493889 2.4739524076847292 -1 0 0
363 121 2 0.4238 14.855909321157215 18.77146798725987 3.8392626783955084 0 0 0
168 56 2 0.4238 12.974454209838704 18.87294913340115 3.4060420043748536 0 0 0
22 8 1 -0.8476 14.550319481276121 15.756063997789957 3.1338007243136174 -1 0 0
379 127 1 -0.8476 12.288334621142313 14.330217819940366 3.3695792355827465 0 0 0
166 56 1 -0.8476 13.106369446327522 17.891844848914662 3.5475785288456585 0 -1 0
24 8 2 0.4238 13.990546420202595 16.537691801851235 3.408958756670092 -1 0 0
381 127 2 0.4238 12.962497063821422 15.066074705976888 3.3061818727753223 0 0 0
23 8 2 0.4238 15.472686963611578 16.06962880591881 2.908157057153212 -1 0 0
167 56 2 0.4238 12.220328645548179 17.45562592860603 3.704564160204305 0 0 0
653 218 2 0.4238 15.524434882389427 14.253208678149356 3.7957825442993247 0 0 0
361 121 1 -0.8476 15.069376229031302 19.67639775965531 3.4711120931143893 0 0 0
380 127 2 0.4238 12.75788334421524 13.447315688464068 3.37235175550143 0 0 0
427 143 1 -0.8476 19.17024186233603 15.72783124525484 3.6335280690055676 0 0 0
429 143 2 0.4238 19.23906735617947 15.60984426840133 4.6241550820170545 0 0 0
55 19 1 -0.8476 17.8398203699751 19.601434536782055 3.107105997344202 0 0 0
92 31 2 0.4238 17.231239120909507 17.923813754387815 3.061091818719208 0 0 0
93 31 2 0.4238 17.52826090427414 16.32241579967254 3.1791149235811464 0 0 0
91 31 1 -0.8476 16.825356748640242 17.011699684215177 3.0035749767264 0 0 0
328 110 1 -0.8476 20.230061331913276 18.193757956940686 2.950791127870407 0 0 0
329 110 2 0.4238 19.339375959223737 18.617143458767774 2.7851885820652096 0 0 0
330 110 2 0.4238 20.890123251447115 18.89768565249373 3.2130960095357044 0 0 0
428 143 2 0.4238 19.733588533808966 16.504015559630766 3.350368077320065 0 0 0
656 219 2 0.4238 21.844799488308407 17.175640094129076 3.7200479196868312 0 0 0
57 19 2 0.4238 17.032129698926695 19.936027717098106 3.5925785085597237 0 0 0
499 167 1 -0.8476 22.040192739295 20.025788620054843 3.330087754842701 0 0 0
509 170 2 0.4238 19.083301385749536 14.130839464712347 3.2498909104820166 0 0 0
495 165 2 0.4238 22.492285941732444 15.143650678893279 3.3045460433071736 0 0 0
657 219 2 0.4238 23.08793339280272 17.68499653378471 2.7917158694765454 0 0 0
655 219 1 -0.8476 22.796233112927982 17.004644509601665 3.464049558860373 0 0 0
528 176 2 0.4238 26.640506522819738 14.170622763627332 3.023237647226982 0 0 0
494 165 2 0.4238 23.654284371691187 14.115821272748784 3.8144008993879965 0 0 0
186 62 2 0.4238 25.48169513752932 15.290585742361142 3.1403984817542203 0 0 0
185 62 2 0.4238 24.4308163549431 16.53239902528835 3.2824547529967383 0 -1 0
400 134 1 -0.8476 24.7193920596832 19.68135217686117 3.287137495804985 0 0 0
184 62 1 -0.8476 25.395012867381087 16.285829893291886 3.1848397569777243 0 -1 0
711 237 2 0.4238 27.16606267796886 19.099929645153832 3.2778076018384015 -1 0 0
710 237 2 0.4238 26.726546741205922 17.53045272700927 3.3787785904153362 -1 0 0
401 134 2 0.4238 25.035045902839403 19.07503165794767 4.017026559317229 0 0 0
500 167 2 0.4238 23.000939786671974 19.784420940090765 3.1933165732676945 0 0 0
709 237 1 -0.8476 27.404135220240263 18.208545854374684 3.6634973393391776 -1 0 0
493 165 1 -0.8476 22.688658780993627 14.199236319874865 3.5682114487163457 0 0 0
526 176 1 -0.8476 25.769949866154636 13.714136570491144 3.2069557601227663 0 0 0
581 194 2 0.4238 28.056484214797578 15.119074168048579 4.240947664327832 0 0 0
582 194 2 0.4238 28.94126917698205 15.693154167408641 2.994266621286923 0 0 0
580 194 1 -0.8476 28.37613655619261 14.931833806437732 3.312097080927093 0 0 0
479 160 2 0.4238 29.489510059142113 19.531987938669705 3.1348978922417357 0 0 0
687 229 2 0.4238 32.2288862263291 16.031853081625048 3.5619473283573213 0 0 0
322 108 1 -0.8476 30.033439348354158 17.897971713121077 3.5792326144404516 0 0 0
323 108 2 0.4238 30.339784904710175 16.946052231497013 3.5807651020552553 0 0 0
324 108 2 0.4238 29.04115218264501 17.928976759558306 3.6992624730173644 0 0 0
685 229 1 -0.8476 31.39266143271646 15.50390532364914 3.413624648668033 0 0 0
193 65 1 -0.8476 32.48354757115233 19.025828133232682 3.704802785726871 0 0 0
195 65 2 0.4238 31.56478588470006 18.69930137626855 3.926742492261059 0 0 0
686 229 2 0.4238 31.591241882064995 14.529206738130762 3.516234344378182 0 0 0
194 65 2 0.4238 33.07912418898244 18.244367699171548 3.518770279375898 0 0 0
697 233 1 -0.8476 34.635744480244526 13.851584661571758 3.5672174850441296 0 0 0
141 47 2 0.4238 38.26683991869275 13.640581650837628 3.3484939549066883 -1 0 0
699 233 2 0.4238 33.67618373579608 13.63225276879961 3.3907627205348683 0 0 0
541 181 1 -0.8476 34.070105469300806 16.631022832325552 3.4730660829913833 0 0 0
542 181 2 0.4238 34.30203674505094 15.662832974085338 3.5669592460629396 0 0 0
543 181 2 0.4238 34.90966154586028 17.17342837428956 3.442387515219559 0 0 0
215 72 2 0.4238 36.5388085607577 14.968813903787495 3.539017548016751 0 0 0
216 72 2 0.4238 37.17235358665077 16.18020639289674 2.6458349276816455 0 0 0
290 97 2 0.4238 37.399920903993284 18.068472049171522 3.3539963570704074 -1 0 0
291 97 2 0.4238 35.970143126895785 18.857243233356826 3.33976518517366 0 0 0
289 97 1 -0.8476 36.428551834721176 17.994003002416186 3.128392607520073 -1 0 0
214 72 1 -0.8476 37.38638461499162 15.370436397597858 3.192153509204115 0 0 0
722 241 2 0.4238 38.368833793158366 20.051555649731355 3.750191710874813 -1 0 0
234 78 2 0.4238 44.39028716348294 20.003466619949545 3.4881722720816537 -1 0 0
585 195 2 0.4238 39.035471699654614 15.633355532862796 3.73378574493199 -1 0 0
277 93 1 -0.8476 41.54142333397888 13.816729761908642 3.167394154729962 0 0 0
16 6 1 -0.8476 39.23455001123735 18.573636513628855 3.331550324480545 0 0 0
584 195 2 0.4238 40.59424772651169 15.178035802619744 3.561950414974149 -1 0 0
233 78 2 0.4238 43.69019290131237 18.5357799162795 3.6378086577821644 -2 0 0
279 93 2 0.4238 42.256703860498476 14.366779134612177 2.7363269779242048 0 0 0
29 10 2 0.4238 41.51175701426027 16.81164807940544 3.8497765497117844 -2 0 0
18 6 2 0.4238 39.96311123465025 18.974890006960024 2.7763980025920882 0 0 0
643 215 1 -0.8476 43.92163819263291 15.36154497468326 2.86197807354514 0 0 0
644 215 2 0.4238 43.27709085383026 16.00071811059254 3.2815211499222054 0 0 0
17 6 2 0.4238 39.53601850054487 17.68952312932232 3.688565702070498 0 0 0
583 195 1 -0.8476 39.9742513983306 15.96013109022929 3.6246512207792527 -1 0 0
30 10 2 0.4238 41.96826183112599 18.35886662400375 3.5961149597388853 -2 0 0
28 10 1 -0.8476 42.29431635338569 17.42700801126971 3.7552623292653946 -2 0 0
103 35 1 -0.8476 41.468618534248506 20.09792060415732 2.8743395378963377 -1 0 0
398 133 2 0.4238 44.33207187906195 13.470440859619899 2.6751529673946908 -1 0 0
298 100 1 -0.8476 2.6789024894494076 22.645494429802216 3.3473988612350545 0 0 0
300 100 2 0.4238 3.531673664470042 23.12226248495384 3.1341533161623913 0 0 0
299 100 2 0.4238 1.9247850805309248 23.302057483622036 3.3626468296719865 0 0 0
454 152 1 -0.8476 5.263194223065727 24.152502736536203 3.138516284184769 0 0 0
469 157 1 -0.8476 0.6216675412932116 24.626284987294348 3.2204769422552637 0 0 0
470 157 2 0.4238 0.5662606276205432 25.616656101461817 3.3473467751063866 0 0 0
456 152 2 0.4238 4.5568159356523275 24.85668166682264 3.066665177756947 0 -1 0
131 44 2 0.4238 4.980041336838465 20.66560741651352 3.2124475570838573 -1 0 0
350 117 2 0.4238 2.4149695264778708 25.458868881353663 3.8395323434976945 0 0 0
132 44 2 0.4238 5.4100059893872015 22.24046063103875 3.252364207596273 -1 0 0
349 117 1 -0.8476 3.202510058565763 26.038990831671864 3.63159421272048 0 0 0
86 29 2 0.4238 2.69318860848784 20.966318113868507 3.3211219807203967 0 0 0
130 44 1 -0.8476 5.747054431061547 21.300468732808135 3.3054118415185902 -1 0 0
455 152 2 0.4238 6.16162537059705 24.586932536025937 3.202490582179893 0 -1 0
47 16 2 0.4238 8.886786091911503 25.099679289302834 3.3079405251764267 -1 0 0
48 16 2 0.4238 7.905906661279211 23.982745134510644 3.9839282525992243 0 0 0
648 216 2 0.4238 8.97494426392919 20.96815135486812 3.481127153504494 0 0 0
46 16 1 -0.8476 7.937010461545007 24.866009636281543 3.516086596104809 -1 0 0
646 216 1 -0.8476 8.589978778747334 21.867179695124445 3.689812506618198 0 0 0
647 216 2 0.4238 7.591564740138745 21.810930007384272 3.6875530109576298 0 0 0
197 66 2 0.4238 10.244623404090136 22.585905793270506 3.464884726486561 -1 0 0
752 256 4 -1 10.681828617624337 26.314278434344885 3.389296748179376 0 0 0
198 66 2 0.4238 11.130636537763293 23.953616713510225 3.360127918254283 0 0 0
196 66 1 -0.8476 11.172152746888631 22.95964140159206 3.461564894266577 -1 0 0
246 82 2 0.4238 15.145572299593578 25.918916608316117 3.069575173793817 0 0 0
539 180 2 0.4238 12.015046751637087 21.490687081582443 3.6445473624991775 0 0 0
538 180 1 -0.8476 12.481480785152598 20.615924974624175 3.7758126251459925 0 0 0
540 180 2 0.4238 13.434599773225937 20.781147498148854 4.029318649898166 0 0 0
629 210 2 0.4238 13.864938350821884 24.635286736708274 3.9909183636630123 0 -1 0
628 210 1 -0.8476 13.794789167384797 23.68002500453334 3.703595192627859 0 -1 0
630 210 2 0.4238 12.835060000134092 23.399207537142395 3.7114806322285534 0 0 0
638 213 2 0.4238 15.293643677661185 22.86861246538431 3.477469860492413 0 0 0
637 213 1 -0.8476 16.13125981685797 22.324262258018948 3.4318399014145995 0 0 0
639 213 2 0.4238 15.940263085679915 21.39223710899707 3.7398161379005006 0 0 0
505 169 1 -0.8476 13.648374594367542 26.57055510918712 3.276548640100833 0 0 0
244 82 1 -0.8476 16.117969570630994 25.68585080574892 3.080655078840335 -1 0 0
245 82 2 0.4238 16.650520535685054 26.490166187035232 3.3442194507925374 -1 0 0
507 169 2 0.4238 12.664953312684066 26.432469480428086 3.1590115268236194 0 0 0
754 258 4 -1 20.152068338952787 25.416610824303454 3.3205132292721595 0 0 0
335 112 2 0.4238 19.991283807645264 22.66655975823165 3.6328076169467547 0 -1 0
336 112 2 0.4238 20.004032764149006 21.576941236407944 2.4165858571044563 0 0 0
746 250 3 1 17.82388603223846 23.953944120699596 2.983507860929961 0 0 0
334 112 1 -0.8476 19.438755318322727 22.011027930371363 3.1180347767514864 0 0 0
501 167 2 0.4238 21.93800352540916 21.019929471809064 3.2948577191340234 0 0 0
615 205 2 0.4238 21.879172864956413 23.661359007910047 3.2452232397725695 0 0 0
56 19 2 0.4238 18.582828735158024 20.264258039417665 3.1998653672460566 0 0 0
402 134 2 0.4238 25.414739774825257 20.37731500622535 3.1078966856647887 0 0 0
614 205 2 0.4238 23.317962144104072 22.907672116662432 3.4139486908254506 0 0 0
613 205 1 -0.8476 22.351360163320233 22.78153866848776 3.1908525280488353 0 0 0
484 162 1 -0.8476 24.970025654582347 23.56972381312493 3.200515818327632 0 0 0
550 184 1 -0.8476 26.93511784577471 25.311547100098892 3.1356841739753594 0 0 0
485 162 2 0.4238 25.773491219372815 24.160051740408402 3.2776873762665457 0 0 0
486 162 2 0.4238 25.04697908627776 23.008051996334807 2.376742605310182 0 0 0
304 102 1 -0.8476 26.754119677558496 21.24297701164822 3.21968578176139 1 0 0
204 68 2 0.4238 23.11549194755553 26.174379509690596 4.176443856078485 0 0 0