LAMMPS Description

2338  atoms
496  bonds
248  angles
0  dihedrals
0  impropers

5  atom types
1  bond types
1  angle types
0  dihedral types
0  improper types

0 44.46 xlo xhi
0 47.058 ylo yhi
0 21.7 zlo zhi

Masses

1 12.011  # C
2 15.9994  # O
3 1.008  # H
4 22.9898  # Na
5 35.453  # Cl

Atoms

1 1 1 0.0 0.618 0.356 7.500
2 2 1 0.0 1.853 3.921 7.500
3 3 1 0.0 1.853 2.495 7.500
4 4 1 0.0 0.618 1.782 7.500
5 5 1 0.0 0.618 0.356 14.200
6 6 1 0.0 1.853 3.921 14.200
7 7 1 0.0 1.853 2.495 14.200
8 8 1 0.0 0.618 1.782 14.200
9 9 1 0.0 0.618 4.634 7.500
10 10 1 0.0 1.853 8.200 7.500
11 11 1 0.0 1.853 6.773 7.500
12 12 1 0.0 0.618 6.060 7.500
13 13 1 0.0 0.618 4.634 14.200
14 14 1 0.0 1.853 8.200 14.200
15 15 1 0.0 1.853 6.773 14.200
16 16 1 0.0 0.618 6.060 14.200
17 17 1 0.0 0.618 8.912 7.500
18 18 1 0.0 1.853 12.478 7.500
19 19 1 0.0 1.853 11.051 7.500
20 20 1 0.0 0.618 10.338 7.500
21 21 1 0.0 0.618 8.912 14.200
22 22 1 0.0 1.853 12.478 14.200
23 23 1 0.0 1.853 11.051 14.200
24 24 1 0.0 0.618 10.338 14.200
25 25 1 0.0 0.618 13.191 7.500
26 26 1 0.0 1.853 16.755 7.500
27 27 1 0.0 1.853 15.329 7.500
28 28 1 0.0 0.618 14.616 7.500
29 29 1 0.0 0.618 13.191 14.200
30 30 1 0.0 1.853 16.755 14.200
31 31 1 0.0 1.853 15.329 14.200
32 32 1 0.0 0.618 14.616 14.200
33 33 1 0.0 0.618 17.468 7.500
34 34 1 0.0 1.853 21.033 7.500
35 35 1 0.0 1.853 19.607 7.500
36 36 1 0.0 0.618 18.894 7.500
37 37 1 0.0 0.618 17.468 14.200
38 38 1 0.0 1.853 21.033 14.200
39 39 1 0.0 1.853 19.607 14.200
40 40 1 0.0 0.618 18.894 14.200
41 41 1 0.0 0.618 21.746 7.500
42 42 1 0.0 1.853 25.311 7.500
43 43 1 0.0 1.853 23.885 7.500
44 44 1 0.0 0.618 23.172 7.500
45 45 1 0.0 0.618 21.746 14.200
46 46 1 0.0 1.853 25.311 14.200
47 47 1 0.0 1.853 23.885 14.200
48 48 1 0.0 0.618 23.172 14.200
49 49 1 0.0 0.618 26.024 7.500
50 50 1 0.0 1.853 29.589 7.500
51 51 1 0.0 1.853 28.163 7.500
52 52 1 0.0 0.618 27.450 7.500
53 53 1 0.0 0.618 26.024 14.200
54 54 1 0.0 1.853 29.589 14.200
55 55 1 0.0 1.853 28.163 14.200
56 56 1 0.0 0.618 27.450 14.200
57 57 1 0.0 0.618 30.302 7.500
58 58 1 0.0 1.853 33.867 7.500
59 59 1 0.0 1.853 32.441 7.500
60 60 1 0.0 0.618 31.728 7.500
61 61 1 0.0 0.618 30.302 14.200
62 62 1 0.0 1.853 33.867 14.200
63 63 1 0.0 1.853 32.441 14.200
64 64 1 0.0 0.618 31.728 14.200
65 65 1 0.0 0.618 34.580 7.500
66 66 1 0.0 1.853 38.145 7.500
67 67 1 0.0 1.853 36.719 7.500
68 68 1 0.0 0.618 36.006 7.500
69 69 1 0.0 0.618 34.580 14.200
70 70 1 0.0 1.853 38.145 14.200
71 71 1 0.0 1.853 36.719 14.200
72 72 1 0.0 0.618 36.006 14.200
73 73 1 0.0 0.618 38.858 7.500
74 74 1 0.0 1.853 42.423 7.500
75 75 1 0.0 1.853 40.997 7.500
76 76 1 0.0 0.618 40.284 7.500
77 77 1 0.0 0.618 38.858 14.200
78 78 1 0.0 1.853 42.423 14.200
79 79 1 0.0 1.853 40.997 14.200
80 80 1 0.0 0.618 40.284 14.200
81 81 1 0.0 0.618 43.136 7.500
82 82 1 0.0 1.853 46.701 7.500
83 83 1 0.0 1.853 45.275 7.500
84 84 1 0.0 0.618 44.562 7.500
85 85 1 0.0 0.618 43.136 14.200
86 86 1 0.0 1.853 46.701 14.200
87 87 1 0.0 1.853 45.275 14.200
88 88 1 0.0 0.618 44.562 14.200
89 89 1 0.0 3.088 0.356 7.500
90 90 1 0.0 4.322 3.921 7.500
91 91 1 0.0 4.322 2.495 7.500
92 92 1 0.0 3.088 1.782 7.500
93 93 1 0.0 3.088 0.356 14.200
94 94 1 0.0 4.322 3.921 14.200
95 95 1 0.0 4.322 2.495 14.200
96 96 1 0.0 3.088 1.782 14.200
97 97 1 0.0 3.088 4.634 7.500
98 98 1 0.0 4.322 8.200 7.500
99 99 1 0.0 4.322 6.773 7.500
100 100 1 0.0 3.088 6.060 7.500
101 101 1 0.0 3.088 4.634 14.200
102 102 1 0.0 4.322 8.200 14.200
103 103 1 0.0 4.322 6.773 14.200
104 104 1 0.0 3.088 6.060 14.200
105 105 1 0.0 3.088 8.912 7.500
106 106 1 0.0 4.322 12.478 7.500
107 107 1 0.0 4.322 11.051 7.500
108 108 1 0.0 3.088 10.338 7.500
109 109 1 0.0 3.088 8.912 14.200
110 110 1 0.0 4.322 12.478 14.200
111 111 1 0.0 4.322 11.051 14.200
112 112 1 0.0 3.088 10.338 14.200
113 113 1 0.0 3.088 13.191 7.500
114 114 1 0.0 4.322 16.755 7.500
115 115 1 0.0 4.322 15.329 7.500
116 116 1 0.0 3.088 14.616 7.500
117 117 1 0.0 3.088 13.191 14.200
118 118 1 0.0 4.322 16.755 14.200
119 119 1 0.0 4.322 15.329 14.200
120 120 1 0.0 3.088 14.616 14.200
121 121 1 0.0 3.088 17.468 7.500
122 122 1 0.0 4.322 21.033 7.500
123 123 1 0.0 4.322 19.607 7.500
124 124 1 0.0 3.088 18.894 7.500
125 125 1 0.0 3.088 17.468 14.200
126 126 1 0.0 4.322 21.033 14.200
127 127 1 0.0 4.322 19.607 14.200
128 128 1 0.0 3.088 18.894 14.200
129 129 1 0.0 3.088 21.746 7.500
130 130 1 0.0 4.322 25.311 7.500
131 131 1 0.0 4.322 23.885 7.500
132 132 1 0.0 3.088 23.172 7.500
133 133 1 0.0 3.088 21.746 14.200
134 134 1 0.0 4.322 25.311 14.200
135 135 1 0.0 4.322 23.885 14.200
136 136 1 0.0 3.088 23.172 14.200
137 137 1 0.0 3.088 26.024 7.500
138 138 1 0.0 4.322 29.589 7.500
139 139 1 0.0 4.322 28.163 7.500
140 140 1 0.0 3.088 27.450 7.500
141 141 1 0.0 3.088 26.024 14.200
142 142 1 0.0 4.322 29.589 14.200
143 143 1 0.0 4.322 28.163 14.200
144 144 1 0.0 3.088 27.450 14.200
145 145 1 0.0 3.088 30.302 7.500
146 146 1 0.0 4.322 33.867 7.500
147 147 1 0.0 4.322 32.441 7.500
148 148 1 0.0 3.088 31.728 7.500
149 149 1 0.0 3.088 30.302 14.200
150 150 1 0.0 4.322 33.867 14.200
151 151 1 0.0 4.322 32.441 14.200
152 152 1 0.0 3.088 31.728 14.200
153 153 1 0.0 3.088 34.580 7.500
154 154 1 0.0 4.322 38.145 7.500
155 155 1 0.0 4.322 36.719 7.500
156 156 1 0.0 3.088 36.006 7.500
157 157 1 0.0 3.088 34.580 14.200
158 158 1 0.0 4.322 38.145 14.200
159 159 1 0.0 4.322 36.719 14.200
160 160 1 0.0 3.088 36.006 14.200
161 161 1 0.0 3.088 38.858 7.500
162 162 1 0.0 4.322 42.423 7.500
163 163 1 0.0 4.322 40.997 7.500
164 164 1 0.0 3.088 40.284 7.500
165 165 1 0.0 3.088 38.858 14.200
166 166 1 0.0 4.322 42.423 14.200
167 167 1 0.0 4.322 40.997 14.200
168 168 1 0.0 3.088 40.284 14.200
169 169 1 0.0 3.088 43.136 7.500
170 170 1 0.0 4.322 46.701 7.500
171 171 1 0.0 4.322 45.275 7.500
172 172 1 0.0 3.088 44.562 7.500
173 173 1 0.0 3.088 43.136 14.200
174 174 1 0.0 4.322 46.701 14.200
175 175 1 0.0 4.322 45.275 14.200
176 176 1 0.0 3.088 44.562 14.200
177 177 1 0.0 5.557 0.356 7.500
178 178 1 0.0 6.792 3.921 7.500
179 179 1 0.0 6.792 2.495 7.500
180 180 1 0.0 5.557 1.782 7.500
181 181 1 0.0 5.557 0.356 14.200
182 182 1 0.0 6.792 3.921 14.200
183 183 1 0.0 6.792 2.495 14.200
184 184 1 0.0 5.557 1.782 14.200
185 185 1 0.0 5.557 4.634 7.500
186 186 1 0.0 6.792 8.200 7.500
187 187 1 0.0 6.792 6.773 7.500
188 188 1 0.0 5.557 6.060 7.500
189 189 1 0.0 5.557 4.634 14.200
190 190 1 0.0 6.792 8.200 14.200
191 191 1 0.0 6.792 6.773 14.200
192 192 1 0.0 5.557 6.060 14.200
193 193 1 0.0 5.557 8.912 7.500
194 194 1 0.0 6.792 12.478 7.500
195 195 1 0.0 6.792 11.051 7.500
196 196 1 0.0 5.557 10.338 7.500
197 197 1 0.0 5.557 8.912 14.200
198 198 1 0.0 6.792 12.478 14.200
199 199 1 0.0 6.792 11.051 14.200
200 200 1 0.0 5.557 10.338 14.200
201 201 1 0.0 5.557 13.191 7.500
202 202 1 0.0 6.792 16.755 7.500
203 203 1 0.0 6.792 15.329 7.500
204 204 1 0.0 5.557 14.616 7.500
205 205 1 0.0 5.557 13.191 14.200
206 206 1 0.0 6.792 16.755 14.200
207 207 1 0.0 6.792 15.329 14.200
208 208 1 0.0 5.557 14.616 14.200
209 209 1 0.0 5.557 17.468 7.500
210 210 1 0.0 6.792 21.033 7.500
211 211 1 0.0 6.792 19.607 7.500
212 212 1 0.0 5.557 18.894 7.500
213 213 1 0.0 5.557 17.468 14.200
214 214 1 0.0 6.792 21.033 14.200
215 215 1 0.0 6.792 19.607 14.200
216 216 1 0.0 5.557 18.894 14.200
217 217 1 0.0 5.557 21.746 7.500
218 218 1 0.0 6.792 25.311 7.500
219 219 1 0.0 6.792 23.885 7.500
220 220 1 0.0 5.557 23.172 7.500
221 221 1 0.0 5.557 21.746 14.200
222 222 1 0.0 6.792 25.311 14.200
223 223 1 0.0 6.792 23.885 14.200
224 224 1 0.0 5.557 23.172 14.200
225 225 1 0.0 5.557 26.024 7.500
226 226 1 0.0 6.792 29.589 7.500
227 227 1 0.0 6.792 28.163 7.500
228 228 1 0.0 5.557 27.450 7.500
229 229 1 0.0 5.557 26.024 14.200
230 230 1 0.0 6.792 29.589 14.200
231 231 1 0.0 6.792 28.163 14.200
232 232 1 0.0 5.557 27.450 14.200
233 233 1 0.0 5.557 30.302 7.500
234 234 1 0.0 6.792 33.867 7.500
235 235 1 0.0 6.792 32.441 7.500
236 236 1 0.0 5.557 31.728 7.500
237 237 1 0.0 5.557 30.302 14.200
238 238 1 0.0 6.792 33.867 14.200
239 239 1 0.0 6.792 32.441 14.200
240 240 1 0.0 5.557 31.728 14.200
241 241 1 0.0 5.557 34.580 7.500
242 242 1 0.0 6.792 38.145 7.500
243 243 1 0.0 6.792 36.719 7.500
244 244 1 0.0 5.557 36.006 7.500
245 245 1 0.0 5.557 34.580 14.200
246 246 1 0.0 6.792 38.145 14.200
247 247 1 0.0 6.792 36.719 14.200
248 248 1 0.0 5.557 36.006 14.200
249 249 1 0.0 5.557 38.858 7.500
250 250 1 0.0 6.792 42.423 7.500
251 251 1 0.0 6.792 40.997 7.500
252 252 1 0.0 5.557 40.284 7.500
253 253 1 0.0 5.557 38.858 14.200
254 254 1 0.0 6.792 42.423 14.200
255 255 1 0.0 6.792 40.997 14.200
256 256 1 0.0 5.557 40.284 14.200
257 257 1 0.0 5.557 43.136 7.500
258 258 1 0.0 6.792 46.701 7.500
259 259 1 0.0 6.792 45.275 7.500
260 260 1 0.0 5.557 44.562 7.500
261 261 1 0.0 5.557 43.136 14.200
262 262 1 0.0 6.792 46.701 14.200
263 263 1 0.0 6.792 45.275 14.200
264 264 1 0.0 5.557 44.562 14.200
265 265 1 0.0 8.027 0.356 7.500
266 266 1 0.0 9.262 3.921 7.500
267 267 1 0.0 9.262 2.495 7.500
268 268 1 0.0 8.027 1.782 7.500
269 269 1 0.0 8.027 0.356 14.200
270 270 1 0.0 9.262 3.921 14.200
271 271 1 0.0 9.262 2.495 14.200
272 272 1 0.0 8.027 1.782 14.200
273 273 1 0.0 8.027 4.634 7.500
274 274 1 0.0 9.262 8.200 7.500
275 275 1 0.0 9.262 6.773 7.500
276 276 1 0.0 8.027 6.060 7.500
277 277 1 0.0 8.027 4.634 14.200
278 278 1 0.0 9.262 8.200 14.200
279 279 1 0.0 9.262 6.773 14.200
280 280 1 0.0 8.027 6.060 14.200
281 281 1 0.0 8.027 8.912 7.500
282 282 1 0.0 9.262 12.478 7.500
283 283 1 0.0 9.262 11.051 7.500
284 284 1 0.0 8.027 10.338 7.500
285 285 1 0.0 8.027 8.912 14.200
286 286 1 0.0 9.262 12.478 14.200
287 287 1 0.0 9.262 11.051 14.200
288 288 1 0.0 8.027 10.338 14.200
289 289 1 0.0 8.027 13.191 7.500
290 290 1 0.0 9.262 16.755 7.500
291 291 1 0.0 9.262 15.329 7.500
292 292 1 0.0 8.027 14.616 7.500
293 293 1 0.0 8.027 13.191 14.200
294 294 1 0.0 9.262 16.755 14.200
295 295 1 0.0 9.262 15.329 14.200
296 296 1 0.0 8.027 14.616 14.200
297 297 1 0.0 8.027 17.468 7.500
298 298 1 0.0 9.262 21.033 7.500
299 299 1 0.0 9.262 19.607 7.500
300 300 1 0.0 8.027 18.894 7.500
301 301 1 0.0 8.027 17.468 14.200
302 302 1 0.0 9.262 21.033 14.200
303 303 1 0.0 9.262 19.607 14.200
304 304 1 0.0 8.027 18.894 14.200
305 305 1 0.0 8.027 21.746 7.500
306 306 1 0.0 9.262 25.311 7.500
307 307 1 0.0 9.262 23.885 7.500
308 308 1 0.0 8.027 23.172 7.500
309 309 1 0.0 8.027 21.746 14.200
310 310 1 0.0 9.262 25.311 14.200
311 311 1 0.0 9.262 23.885 14.200
312 312 1 0.0 8.027 23.172 14.200
313 313 1 0.0 8.027 26.024 7.500
314 314 1 0.0 9.262 29.589 7.500
315 315 1 0.0 9.262 28.163 7.500
316 316 1 0.0 8.027 27.450 7.500
317 317 1 0.0 8.027 26.024 14.200
318 318 1 0.0 9.262 29.589 14.200
319 319 1 0.0 9.262 28.163 14.200
320 320 1 0.0 8.027 27.450 14.200
321 321 1 0.0 8.027 30.302 7.500
322 322 1 0.0 9.262 33.867 7.500
323 323 1 0.0 9.262 32.441 7.500
324 324 1 0.0 8.027 31.728 7.500
325 325 1 0.0 8.027 30.302 14.200
326 326 1 0.0 9.262 33.867 14.200
327 327 1 0.0 9.262 32.441 14.200
328 328 1 0.0 8.027 31.728 14.200
329 329 1 0.0 8.027 34.580 7.500
330 330 1 0.0 9.262 38.145 7.500
331 331 1 0.0 9.262 36.719 7.500
332 332 1 0.0 8.027 36.006 7.500
333 333 1 0.0 8.027 34.580 14.200
334 334 1 0.0 9.262 38.145 14.200
335 335 1 0.0 9.262 36.719 14.200
336 336 1 0.0 8.027 36.006 14.200
337 337 1 0.0 8.027 38.858 7.500
338 338 1 0.0 9.262 42.423 7.500
339 339 1 0.0 9.262 40.997 7.500
340 340 1 0.0 8.027 40.284 7.500
341 341 1 0.0 8.027 38.858 14.200
342 342 1 0.0 9.262 42.423 14.200
343 343 1 0.0 9.262 40.997 14.200
344 344 1 0.0 8.027 40.284 14.200
345 345 1 0.0 8.027 43.136 7.500
346 346 1 0.0 9.262 46.701 7.500
347 347 1 0.0 9.262 45.275 7.500
348 348 1 0.0 8.027 44.562 7.500
349 349 1 0.0 8.027 43.136 14.200
350 350 1 0.0 9.262 46.701 14.200
351 351 1 0.0 9.262 45.275 14.200
352 352 1 0.0 8.027 44.562 14.200
353 353 1 0.0 10.497 0.356 7.500
354 354 1 0.0 11.732 3.921 7.500
355 355 1 0.0 11.732 2.495 7.500
356 356 1 0.0 10.497 1.782 7.500
357 357 1 0.0 10.497 0.356 14.200
358 358 1 0.0 11.732 3.921 14.200
359 359 1 0.0 11.732 2.495 14.200
360 360 1 0.0 10.497 1.782 14.200
361 361 1 0.0 10.497 4.634 7.500
362 362 1 0.0 11.732 8.200 7.500
363 363 1 0.0 11.732 6.773 7.500
364 364 1 0.0 10.497 6.060 7.500
365 365 1 0.0 10.497 4.634 14.200
366 366 1 0.0 11.732 8.200 14.200
367 367 1 0.0 11.732 6.773 14.200
368 368 1 0.0 10.497 6.060 14.200
369 369 1 0.0 10.497 8.912 7.500
370 370 1 0.0 11.732 12.478 7.500
371 371 1 0.0 11.732 11.051 7.500
372 372 1 0.0 10.497 10.338 7.500
373 373 1 0.0 10.497 8.912 14.200
374 374 1 0.0 11.732 12.478 14.200
375 375 1 0.0 11.732 11.051 14.200
376 376 1 0.0 10.497 10.338 14.200
377 377 1 0.0 10.497 13.191 7.500
378 378 1 0.0 11.732 16.755 7.500
379 379 1 0.0 11.732 15.329 7.500
380 380 1 0.0 10.497 14.616 7.500
381 381 1 0.0 10.497 13.191 14.200
382 382 1 0.0 11.732 16.755 14.200
383 383 1 0.0 11.732 15.329 14.200
384 384 1 0.0 10.497 14.616 14.200
385 385 1 0.0 10.497 17.468 7.500
386 386 1 0.0 11.732 21.033 7.500
387 387 1 0.0 11.732 19.607 7.500
388 388 1 0.0 10.497 18.894 7.500
389 389 1 0.0 10.497 17.468 14.200
390 390 1 0.0 11.732 21.033 14.200
391 391 1 0.0 11.732 19.607 14.200
392 392 1 0.0 10.497 18.894 14.200
393 393 1 0.0 10.497 21.746 7.500
394 394 1 0.0 11.732 25.311 7.500
395 395 1 0.0 11.732 23.885 7.500
396 396 1 0.0 10.497 23.172 7.500
397 397 1 0.0 10.497 21.746 14.200
398 398 1 0.0 11.732 25.311 14.200
399 399 1 0.0 11.732 23.885 14.200
400 400 1 0.0 10.497 23.172 14.200
401 401 1 0.0 10.497 26.024 7.500
402 402 1 0.0 11.732 29.589 7.500
403 403 1 0.0 11.732 28.163 7.500
404 404 1 0.0 10.497 27.450 7.500
405 405 1 0.0 10.497 26.024 14.200
406 406 1 0.0 11.732 29.589 14.200
407 407 1 0.0 11.732 28.163 14.200
408 408 1 0.0 10.497 27.450 14.200
409 409 1 0.0 10.497 30.302 7.500
410 410 1 0.0 11.732 33.867 7.500
411 411 1 0.0 11.732 32.441 7.500
412 412 1 0.0 10.497 31.728 7.500
413 413 1 0.0 10.497 30.302 14.200
414 414 1 0.0 11.732 33.867 14.200
415 415 1 0.0 11.732 32.441 14.200
416 416 1 0.0 10.497 31.728 14.200
417 417 1 0.0 10.497 34.580 7.500
418 418 1 0.0 11.732 38.145 7.500
419 419 1 0.0 11.732 36.719 7.500
420 420 1 0.0 10.497 36.006 7.500
421 421 1 0.0 10.497 34.580 14.200
422 422 1 0.0 11.732 38.145 14.200
423 423 1 0.0 11.732 36.719 14.200
424 424 1 0.0 10.497 36.006 14.200
425 425 1 0.0 10.497 38.858 7.500
426 426 1 0.0 11.732 42.423 7.500
427 427 1 0.0 11.732 40.997 7.500
428 428 1 0.0 10.497 40.284 7.500
429 429 1 0.0 10.497 38.858 14.200
430 430 1 0.0 11.732 42.423 14.200
431 431 1 0.0 11.732 40.997 14.200
432 432 1 0.0 10.497 40.284 14.200
433 433 1 0.0 10.497 43.136 7.500
434 434 1 0.0 11.732 46.701 7.500
435 435 1 0.0 11.732 45.275 7.500
436 436 1 0.0 10.497 44.562 7.500
437 437 1 0.0 10.497 43.136 14.200
438 438 1 0.0 11.732 46.701 14.200
439 439 1 0.0 11.732 45.275 14.200
440 440 1 0.0 10.497 44.562 14.200
441 441 1 0.0 12.968 0.356 7.500
442 442 1 0.0 14.203 3.921 7.500
443 443 1 0.0 14.203 2.495 7.500
444 444 1 0.0 12.968 1.782 7.500
445 445 1 0.0 12.968 0.356 14.200
446 446 1 0.0 14.203 3.921 14.200
447 447 1 0.0 14.203 2.495 14.200
448 448 1 0.0 12.968 1.782 14.200
449 449 1 0.0 12.968 4.634 7.500
450 450 1 0.0 14.203 8.200 7.500
451 451 1 0.0 14.203 6.773 7.500
452 452 1 0.0 12.968 6.060 7.500
453 453 1 0.0 12.968 4.634 14.200
454 454 1 0.0 14.203 8.200 14.200
455 455 1 0.0 14.203 6.773 14.200
456 456 1 0.0 12.968 6.060 14.200
457 457 1 0.0 12.968 8.912 7.500
458 458 1 0.0 14.203 12.478 7.500
459 459 1 0.0 14.203 11.051 7.500
460 460 1 0.0 12.968 10.338 7.500
461 461 1 0.0 12.968 8.912 14.200
462 462 1 0.0 14.203 12.478 14.200
463 463 1 0.0 14.203 11.051 14.200
464 464 1 0.0 12.968 10.338 14.200
465 465 1 0.0 12.968 13.191 7.500
466 466 1 0.0 14.203 16.755 7.500
467 467 1 0.0 14.203 15.329 7.500
468 468 1 0.0 12.968 14.616 7.500
469 469 1 0.0 12.968 13.191 14.200
470 470 1 0.0 14.203 16.755 14.200
471 471 1 0.0 14.203 15.329 14.200
472 472 1 0.0 12.968 14.616 14.200
473 473 1 0.0 12.968 17.468 7.500
474 474 1 0.0 14.203 21.033 7.500
475 475 1 0.0 14.203 19.607 7.500
476 476 1 0.0 12.968 18.894 7.500
477 477 1 0.0 12.968 17.468 14.200
478 478 1 0.0 14.203 21.033 14.200
479 479 1 0.0 14.203 19.607 14.200
480 480 1 0.0 12.968 18.894 14.200
481 481 1 0.0 12.968 21.746 7.500
482 482 1 0.0 14.203 25.311 7.500
483 483 1 0.0 14.203 23.885 7.500
484 484 1 0.0 12.968 23.172 7.500
485 485 1 0.0 12.968 21.746 14.200
486 486 1 0.0 14.203 25.311 14.200
487 487 1 0.0 14.203 23.885 14.200
488 488 1 0.0 12.968 23.172 14.200
489 489 1 0.0 12.968 26.024 7.500
490 490 1 0.0 14.203 29.589 7.500
491 491 1 0.0 14.203 28.163 7.500
492 492 1 0.0 12.968 27.450 7.500
493 493 1 0.0 12.968 26.024 14.200
494 494 1 0.0 14.203 29.589 14.200
495 495 1 0.0 14.203 28.163 14.200
496 496 1 0.0 12.968 27.450 14.200
497 497 1 0.0 12.968 30.302 7.500
498 498 1 0.0 14.203 33.867 7.500
499 499 1 0.0 14.203 32.441 7.500
500 500 1 0.0 12.968 31.728 7.500
501 501 1 0.0 12.968 30.302 14.200
502 502 1 0.0 14.203 33.867 14.200
503 503 1 0.0 14.203 32.441 14.200
504 504 1 0.0 12.968 31.728 14.200
505 505 1 0.0 12.968 34.580 7.500
506 506 1 0.0 14.203 38.145 7.500
507 507 1 0.0 14.203 36.719 7.500
508 508 1 0.0 12.968 36.006 7.500
509 509 1 0.0 12.968 34.580 14.200
510 510 1 0.0 14.203 38.145 14.200
511 511 1 0.0 14.203 36.719 14.200
512 512 1 0.0 12.968 36.006 14.200
513 513 1 0.0 12.968 38.858 7.500
514 514 1 0.0 14.203 42.423 7.500
515 515 1 0.0 14.203 40.997 7.500
516 516 1 0.0 12.968 40.284 7.500
517 517 1 0.0 12.968 38.858 14.200
518 518 1 0.0 14.203 42.423 14.200
519 519 1 0.0 14.203 40.997 14.200
520 520 1 0.0 12.968 40.284 14.200
521 521 1 0.0 12.968 43.136 7.500
522 522 1 0.0 14.203 46.701 7.500
523 523 1 0.0 14.203 45.275 7.500
524 524 1 0.0 12.968 44.562 7.500
525 525 1 0.0 12.968 43.136 14.200
526 526 1 0.0 14.203 46.701 14.200
527 527 1 0.0 14.203 45.275 14.200
528 528 1 0.0 12.968 44.562 14.200
529 529 1 0.0 15.438 0.356 7.500
530 530 1 0.0 16.672 3.921 7.500
531 531 1 0.0 16.672 2.495 7.500
532 532 1 0.0 15.438 1.782 7.500
533 533 1 0.0 15.438 0.356 14.200
534 534 1 0.0 16.672 3.921 14.200
535 535 1 0.0 16.672 2.495 14.200
536 536 1 0.0 15.438 1.782 14.200
537 537 1 0.0 15.438 4.634 7.500
538 538 1 0.0 16.672 8.200 7.500
539 539 1 0.0 16.672 6.773 7.500
540 540 1 0.0 15.438 6.060 7.500
541 541 1 0.0 15.438 4.634 14.200
542 542 1 0.0 16.672 8.200 14.200
543 543 1 0.0 16.672 6.773 14.200
544 544 1 0.0 15.438 6.060 14.200
545 545 1 0.0 15.438 8.912 7.500
546 546 1 0.0 16.672 12.478 7.500
547 547 1 0.0 16.672 11.051 7.500
548 548 1 0.0 15.438 10.338 7.500
549 549 1 0.0 15.438 8.912 14.200
550 550 1 0.0 16.672 12.478 14.200
551 551 1 0.0 16.672 11.051 14.200
552 552 1 0.0 15.438 10.338 14.200
553 553 1 0.0 15.438 13.191 7.500
554 554 1 0.0 16.672 16.755 7.500
555 555 1 0.0 16.672 15.329 7.500
556 556 1 0.0 15.438 14.616 7.500
557 557 1 0.0 15.438 13.191 14.200
558 558 1 0.0 16.672 16.755 14.200
559 559 1 0.0 16.672 15.329 14.200
560 560 1 0.0 15.438 14.616 14.200
561 561 1 0.0 15.438 17.468 7.500
562 562 1 0.0 16.672 21.033 7.500
563 563 1 0.0 16.672 19.607 7.500
564 564 1 0.0 15.438 18.894 7.500
565 565 1 0.0 15.438 17.468 14.200
566 566 1 0.0 16.672 21.033 14.200
567 567 1 0.0 16.672 19.607 14.200
568 568 1 0.0 15.438 18.894 14.200
569 569 1 0.0 15.438 21.746 7.500
570 570 1 0.0 16.672 25.311 7.500
571 571 1 0.0 16.672 23.885 7.500
572 572 1 0.0 15.438 23.172 7.500
573 573 1 0.0 15.438 21.746 14.200
574 574 1 0.0 16.672 25.311 14.200
575 575 1 0.0 16.672 23.885 14.200
576 576 1 0.0 15.438 23.172 14.200
577 577 1 0.0 15.438 26.024 7.500
578 578 1 0.0 16.672 29.589 7.500
579 579 1 0.0 16.672 28.163 7.500
580 580 1 0.0 15.438 27.450 7.500
581 581 1 0.0 15.438 26.024 14.200
582 582 1 0.0 16.672 29.589 14.200
583 583 1 0.0 16.672 28.163 14.200
584 584 1 0.0 15.438 27.450 14.200
585 585 1 0.0 15.438 30.302 7.500
586 586 1 0.0 16.672 33.867 7.500
587 587 1 0.0 16.672 32.441 7.500
588 588 1 0.0 15.438 31.728 7.500
589 589 1 0.0 15.438 30.302 14.200
590 590 1 0.0 16.672 33.867 14.200
591 591 1 0.0 16.672 32.441 14.200
592 592 1 0.0 15.438 31.728 14.200
593 593 1 0.0 15.438 34.580 7.500
594 594 1 0.0 16.672 38.145 7.500
595 595 1 0.0 16.672 36.719 7.500
596 596 1 0.0 15.438 36.006 7.500
597 597 1 0.0 15.438 34.580 14.200
598 598 1 0.0 16.672 38.145 14.200
599 599 1 0.0 16.672 36.719 14.200
600 600 1 0.0 15.438 36.006 14.200
601 601 1 0.0 15.438 38.858 7.500
602 602 1 0.0 16.672 42.423 7.500
603 603 1 0.0 16.672 40.997 7.500
604 604 1 0.0 15.438 40.284 7.500
605 605 1 0.0 15.438 38.858 14.200
606 606 1 0.0 16.672 42.423 14.200
607 607 1 0.0 16.672 40.997 14.200
608 608 1 0.0 15.438 40.284 14.200
609 609 1 0.0 15.438 43.136 7.500
610 610 1 0.0 16.672 46.701 7.500
611 611 1 0.0 16.672 45.275 7.500
612 612 1 0.0 15.438 44.562 7.500
613 613 1 0.0 15.438 43.136 14.200
614 614 1 0.0 16.672 46.701 14.200
615 615 1 0.0 16.672 45.275 14.200
616 616 1 0.0 15.438 44.562 14.200
617 617 1 0.0 17.908 0.356 7.500
618 618 1 0.0 19.142 3.921 7.500
619 619 1 0.0 19.142 2.495 7.500
620 620 1 0.0 17.908 1.782 7.500
621 621 1 0.0 17.908 0.356 14.200
622 622 1 0.0 19.142 3.921 14.200
623 623 1 0.0 19.142 2.495 14.200
624 624 1 0.0 17.908 1.782 14.200
625 625 1 0.0 17.908 4.634 7.500
626 626 1 0.0 19.142 8.200 7.500
627 627 1 0.0 19.142 6.773 7.500
628 628 1 0.0 17.908 6.060 7.500
629 629 1 0.0 17.908 4.634 14.200
630 630 1 0.0 19.142 8.200 14.200
631 631 1 0.0 19.142 6.773 14.200
632 632 1 0.0 17.908 6.060 14.200
633 633 1 0.0 17.908 8.912 7.500
634 634 1 0.0 19.142 12.478 7.500
635 635 1 0.0 19.142 11.051 7.500
636 636 1 0.0 17.908 10.338 7.500
637 637 1 0.0 17.908 8.912 14.200
638 638 1 0.0 19.142 12.478 14.200
639 639 1 0.0 19.142 11.051 14.200
640 640 1 0.0 17.908 10.338 14.200
641 641 1 0.0 17.908 13.191 7.500
642 642 1 0.0 19.142 16.755 7.500
643 643 1 0.0 19.142 15.329 7.500
644 644 1 0.0 17.908 14.616 7.500
645 645 1 0.0 17.908 13.191 14.200
646 646 1 0.0 19.142 16.755 14.200
647 647 1 0.0 19.142 15.329 14.200
648 648 1 0.0 17.908 14.616 14.200
649 649 1 0.0 17.908 17.468 7.500
650 650 1 0.0 19.142 21.033 7.500
651 651 1 0.0 19.142 19.607 7.500
652 652 1 0.0 17.908 18.894 7.500
653 653 1 0.0 17.908 17.468 14.200
654 654 1 0.0 19.142 21.033 14.200
655 655 1 0.0 19.142 19.607 14.200
656 656 1 0.0 17.908 18.894 14.200
657 657 1 0.0 17.908 21.746 7.500
658 658 1 0.0 19.142 25.311 7.500
659 659 1 0.0 19.142 23.885 7.500
660 660 1 0.0 17.908 23.172 7.500
661 661 1 0.0 17.908 21.746 14.200
662 662 1 0.0 19.142 25.311 14.200
663 663 1 0.0 19.142 23.885 14.200
664 664 1 0.0 17.908 23.172 14.200
665 665 1 0.0 17.908 26.024 7.500
666 666 1 0.0 19.142 29.589 7.500
667 667 1 0.0 19.142 28.163 7.500
668 668 1 0.0 17.908 27.450 7.500
669 669 1 0.0 17.908 26.024 14.200
670 670 1 0.0 19.142 29.589 14.200
671 671 1 0.0 19.142 28.163 14.200
672 672 1 0.0 17.908 27.450 14.200
673 673 1 0.0 17.908 30.302 7.500
674 674 1 0.0 19.142 33.867 7.500
675 675 1 0.0 19.142 32.441 7.500
676 676 1 0.0 17.908 31.728 7.500
677 677 1 0.0 17.908 30.302 14.200
678 678 1 0.0 19.142 33.867 14.200
679 679 1 0.0 19.142 32.441 14.200
680 680 1 0.0 17.908 31.728 14.200
681 681 1 0.0 17.908 34.580 7.500
682 682 1 0.0 19.142 38.145 7.500
683 683 1 0.0 19.142 36.719 7.500
684 684 1 0.0 17.908 36.006 7.500
685 685 1 0.0 17.908 34.580 14.200
686 686 1 0.0 19.142 38.145 14.200
687 687 1 0.0 19.142 36.719 14.200
688 688 1 0.0 17.908 36.006 14.200
689 689 1 0.0 17.908 38.858 7.500
690 690 1 0.0 19.142 42.423 7.500
691 691 1 0.0 19.142 40.997 7.500
692 692 1 0.0 17.908 40.284 7.500
693 693 1 0.0 17.908 38.858 14.200
694 694 1 0.0 19.142 42.423 14.200
695 695 1 0.0 19.142 40.997 14.200
696 696 1 0.0 17.908 40.284 14.200
697 697 1 0.0 17.908 43.136 7.500
698 698 1 0.0 19.142 46.701 7.500
699 699 1 0.0 19.142 45.275 7.500
700 700 1 0.0 17.908 44.562 7.500
701 701 1 0.0 17.908 43.136 14.200
702 702 1 0.0 19.142 46.701 14.200
703 703 1 0.0 19.142 45.275 14.200
704 704 1 0.0 17.908 44.562 14.200
705 705 1 0.0 20.378 0.356 7.500
706 706 1 0.0 21.612 3.921 7.500
707 707 1 0.0 21.612 2.495 7.500
708 708 1 0.0 20.378 1.782 7.500
709 709 1 0.0 20.378 0.356 14.200
710 710 1 0.0 21.612 3.921 14.200
711 711 1 0.0 21.612 2.495 14.200
712 712 1 0.0 20.378 1.782 14.200
713 713 1 0.0 20.378 4.634 7.500
714 714 1 0.0 21.612 8.200 7.500
715 715 1 0.0 21.612 6.773 7.500
716 716 1 0.0 20.378 6.060 7.500
717 717 1 0.0 20.378 4.634 14.200
718 718 1 0.0 21.612 8.200 14.200
719 719 1 0.0 21.612 6.773 14.200
720 720 1 0.0 20.378 6.060 14.200
721 721 1 0.0 20.378 8.912 7.500
722 722 1 0.0 21.612 12.478 7.500
723 723 1 0.0 21.612 11.051 7.500
724 724 1 0.0 20.378 10.338 7.500
725 725 1 0.0 20.378 8.912 14.200
726 726 1 0.0 21.612 12.478 14.200
727 727 1 0.0 21.612 11.051 14.200
728 728 1 0.0 20.378 10.338 14.200
729 729 1 0.0 20.378 13.191 7.500
730 730 1 0.0 21.612 16.755 7.500
731 731 1 0.0 21.612 15.329 7.500
732 732 1 0.0 20.378 14.616 7.500
733 733 1 0.0 20.378 13.191 14.200
734 734 1 0.0 21.612 16.755 14.200
735 735 1 0.0 21.612 15.329 14.200
736 736 1 0.0 20.378 14.616 14.200
737 737 1 0.0 20.378 17.468 7.500
738 738 1 0.0 21.612 21.033 7.500
739 739 1 0.0 21.612 19.607 7.500
740 740 1 0.0 20.378 18.894 7.500
741 741 1 0.0 20.378 17.468 14.200
742 742 1 0.0 21.612 21.033 14.200
743 743 1 0.0 21.612 19.607 14.200
744 744 1 0.0 20.378 18.894 14.200
745 745 1 0.0 20.378 21.746 7.500
746 746 1 0.0 21.612 25.311 7.500
747 747 1 0.0 21.612 23.885 7.500
748 748 1 0.0 20.378 23.172 7.500
749 749 1 0.0 20.378 21.746 14.200
750 750 1 0.0 21.612 25.311 14.200
751 751 1 0.0 21.612 23.885 14.200
752 752 1 0.0 20.378 23.172 14.200
753 753 1 0.0 20.378 26.024 7.500
754 754 1 0.0 21.612 29.589 7.500
755 755 1 0.0 21.612 28.163 7.500
756 756 1 0.0 20.378 27.450 7.500
757 757 1 0.0 20.378 26.024 14.200
758 758 1 0.0 21.612 29.589 14.200
759 759 1 0.0 21.612 28.163 14.200
760 760 1 0.0 20.378 27.450 14.200
761 761 1 0.0 20.378 30.302 7.500
762 762 1 0.0 21.612 33.867 7.500
763 763 1 0.0 21.612 32.441 7.500
764 764 1 0.0 20.378 31.728 7.500
765 765 1 0.0 20.378 30.302 14.200
766 766 1 0.0 21.612 33.867 14.200
767 767 1 0.0 21.612 32.441 14.200
768 768 1 0.0 20.378 31.728 14.200
769 769 1 0.0 20.378 34.580 7.500
770 770 1 0.0 21.612 38.145 7.500
771 771 1 0.0 21.612 36.719 7.500
772 772 1 0.0 20.378 36.006 7.500
773 773 1 0.0 20.378 34.580 14.200
774 774 1 0.0 21.612 38.145 14.200
775 775 1 0.0 21.612 36.719 14.200
776 776 1 0.0 20.378 36.006 14.200
777 777 1 0.0 20.378 38.858 7.500
778 778 1 0.0 21.612 42.423 7.500
779 779 1 0.0 21.612 40.997 7.500
780 780 1 0.0 20.378 40.284 7.500
781 781 1 0.0 20.378 38.858 14.200
782 782 1 0.0 21.612 42.423 14.200
783 783 1 0.0 21.612 40.997 14.200
784 784 1 0.0 20.378 40.284 14.200
785 785 1 0.0 20.378 43.136 7.500
786 786 1 0.0 21.612 46.701 7.500
787 787 1 0.0 21.612 45.275 7.500
788 788 1 0.0 20.378 44.562 7.500
789 789 1 0.0 20.378 43.136 14.200
790 790 1 0.0 21.612 46.701 14.200
791 791 1 0.0 21.612 45.275 14.200
792 792 1 0.0 20.378 44.562 14.200
793 793 1 0.0 22.848 0.356 7.500
794 794 1 0.0 24.082 3.921 7.500
795 795 1 0.0 24.082 2.495 7.500
796 796 1 0.0 22.848 1.782 7.500
797 797 1 0.0 22.848 0.356 14.200
798 798 1 0.0 24.082 3.921 14.200
799 799 1 0.0 24.082 2.495 14.200
800 800 1 0.0 22.848 1.782 14.200
801 801 1 0.0 22.848 4.634 7.500
802 802 1 0.0 24.082 8.200 7.500
803 803 1 0.0 24.082 6.773 7.500
804 804 1 0.0 22.848 6.060 7.500
805 805 1 0.0 22.848 4.634 14.200
806 806 1 0.0 24.082 8.200 14.200
807 807 1 0.0 24.082 6.773 14.200
808 808 1 0.0 22.848 6.060 14.200
809 809 1 0.0 22.848 8.912 7.500
810 810 1 0.0 24.082 12.478 7.500
811 811 1 0.0 24.082 11.051 7.500
812 812 1 0.0 22.848 10.338 7.500
813 813 1 0.0 22.848 8.912 14.200
814 814 1 0.0 24.082 12.478 14.200
815 815 1 0.0 24.082 11.051 14.200
816 816 1 0.0 22.848 10.338 14.200
817 817 1 0.0 22.848 13.191 7.500
818 818 1 0.0 24.082 16.755 7.500
819 819 1 0.0 24.082 15.329 7.500
820 820 1 0.0 22.848 14.616 7.500
821 821 1 0.0 22.848 13.191 14.200
822 822 1 0.0 24.082 16.755 14.200
823 823 1 0.0 24.082 15.329 14.200
824 824 1 0.0 22.848 14.616 14.200
825 825 1 0.0 22.848 17.468 7.500
826 826 1 0.0 24.082 21.033 7.500
827 827 1 0.0 24.082 19.607 7.500
828 828 1 0.0 22.848 18.894 7.500
829 829 1 0.0 22.848 17.468 14.200
830 830 1 0.0 24.082 21.033 14.200
831 831 1 0.0 24.082 19.607 14.200
832 832 1 0.0 22.848 18.894 14.200
833 833 1 0.0 22.848 21.746 7.500
834 834 1 0.0 24.082 25.311 7.500
835 835 1 0.0 24.082 23.885 7.500
836 836 1 0.0 22.848 23.172 7.500
837 837 1 0.0 22.848 21.746 14.200
838 838 1 0.0 24.082 25.311 14.200
839 839 1 0.0 24.082 23.885 14.200
840 840 1 0.0 22.848 23.172 14.200
841 841 1 0.0 22.848 26.024 7.500
842 842 1 0.0 24.082 29.589 7.500
843 843 1 0.0 24.082 28.163 7.500
844 844 1 0.0 22.848 27.450 7.500
845 845 1 0.0 22.848 26.024 14.200
846 846 1 0.0 24.082 29.589 14.200
847 847 1 0.0 24.082 28.163 14.200
848 848 1 0.0 22.848 27.450 14.200
849 849 1 0.0 22.848 30.302 7.500
850 850 1 0.0 24.082 33.867 7.500
851 851 1 0.0 24.082 32.441 7.500
852 852 1 0.0 22.848 31.728 7.500
853 853 1 0.0 22.848 30.302 14.200
854 854 1 0.0 24.082 33.867 14.200
855 855 1 0.0 24.082 32.441 14.200
856 856 1 0.0 22.848 31.728 14.200
857 857 1 0.0 22.848 34.580 7.500
858 858 1 0.0 24.082 38.145 7.500
859 859 1 0.0 24.082 36.719 7.500
860 860 1 0.0 22.848 36.006 7.500
861 861 1 0.0 22.848 34.580 14.200
862 862 1 0.0 24.082 38.145 14.200
863 863 1 0.0 24.082 36.719 14.200
864 864 1 0.0 22.848 36.006 14.200
865 865 1 0.0 22.848 38.858 7.500
866 866 1 0.0 24.082 42.423 7.500
867 867 1 0.0 24.082 40.997 7.500
868 868 1 0.0 22.848 40.284 7.500
869 869 1 0.0 22.848 38.858 14.200
870 870 1 0.0 24.082 42.423 14.200
871 871 1 0.0 24.082 40.997 14.200
872 872 1 0.0 22.848 40.284 14.200
873 873 1 0.0 22.848 43.136 7.500
874 874 1 0.0 24.082 46.701 7.500
875 875 1 0.0 24.082 45.275 7.500
876 876 1 0.0 22.848 44.562 7.500
877 877 1 0.0 22.848 43.136 14.200
878 878 1 0.0 24.082 46.701 14.200
879 879 1 0.0 24.082 45.275 14.200
880 880 1 0.0 22.848 44.562 14.200
881 881 1 0.0 25.318 0.356 7.500
882 882 1 0.0 26.553 3.921 7.500